/*--------------------------------*- C++ -*----------------------------------*\
  =========                 |
  \\      /  F ield         | OpenFOAM: The Open Source CFD Toolbox
   \\    /   O peration     | Website:  https://openfoam.org
    \\  /    A nd           | Version:  7
     \\/     M anipulation  |
\*---------------------------------------------------------------------------*/
FoamFile
{
    version     2.0;
    format      ascii;
    class       pointScalarField;
    location    "0";
    object      motionScale;
}
// * * * * * * * * * * * * * * * * * * * * * * * * * * * * * * * * * * * * * //

dimensions      [0 0 0 0 0 0 0];

internalField   nonuniform List<scalar> 
35440
(
0.0436047
0.0460704
0.048635
0.0512998
0.0540659
0.0569339
0.0599046
0.0629778
0.0661534
0.0694307
0.0728084
0.0762848
0.0798574
0.0835234
0.0872789
0.0911193
0.0950394
0.0990327
0.103092
0.107209
0.111373
0.115575
0.119802
0.12404
0.128274
0.132488
0.136664
0.140781
0.144819
0.148753
0.152558
0.0652699
0.0685066
0.0718633
0.0753415
0.0789424
0.0826669
0.0865154
0.0904881
0.0945846
0.0988038
0.103144
0.107604
0.11218
0.116869
0.121665
0.126564
0.131559
0.136643
0.141806
0.147039
0.15233
0.157665
0.163031
0.168411
0.173788
0.17914
0.184447
0.189684
0.194825
0.199843
0.204706
0.0890228
0.0930397
0.0971976
0.101498
0.105943
0.110533
0.115268
0.120149
0.125175
0.130344
0.135656
0.141106
0.146693
0.152411
0.158255
0.164219
0.170295
0.176474
0.182745
0.189098
0.195517
0.201989
0.208495
0.215018
0.221535
0.228023
0.234458
0.24081
0.247049
0.253142
0.259053
0.114036
0.118827
0.123781
0.128898
0.134179
0.139627
0.145241
0.151021
0.156967
0.163076
0.169347
0.175777
0.182362
0.189096
0.195973
0.202986
0.210125
0.217381
0.224742
0.232193
0.239719
0.247303
0.254924
0.262562
0.270192
0.277786
0.285316
0.292749
0.30005
0.307181
0.314101
0.139635
0.145184
0.150915
0.156829
0.162929
0.169214
0.175685
0.182342
0.189184
0.196208
0.203414
0.210795
0.218349
0.226069
0.233948
0.241976
0.250145
0.258442
0.266853
0.275363
0.283955
0.292608
0.301299
0.310005
0.318698
0.327346
0.335918
0.344376
0.352682
0.36079
0.368657
0.165282
0.171564
0.178045
0.184729
0.191617
0.198709
0.206006
0.213506
0.22121
0.229114
0.237216
0.245511
0.253993
0.262657
0.271493
0.280492
0.289642
0.29893
0.308341
0.317857
0.327458
0.337122
0.346823
0.356535
0.366226
0.375863
0.385407
0.39482
0.404055
0.413066
0.421801
0.190559
0.197541
0.20474
0.212159
0.219798
0.22766
0.235743
0.244047
0.25257
0.26131
0.270263
0.279423
0.288786
0.298342
0.308083
0.317997
0.328072
0.338293
0.348642
0.3591
0.369645
0.380253
0.390894
0.40154
0.412155
0.422702
0.433141
0.443426
0.453508
0.463336
0.472851
0.215148
0.222793
0.230672
0.238786
0.247137
0.255725
0.264551
0.273612
0.282908
0.292434
0.302187
0.312161
0.322348
0.332741
0.343327
0.354097
0.365034
0.376122
0.387343
0.398674
0.410092
0.421569
0.433075
0.444576
0.456035
0.467411
0.478658
0.489729
0.500569
0.511122
0.521325
0.238818
0.247087
0.255604
0.264371
0.273389
0.282659
0.29218
0.30195
0.311967
0.322228
0.332727
0.343458
0.354412
0.365581
0.376952
0.388512
0.400246
0.412134
0.424156
0.436288
0.448504
0.460775
0.473066
0.485342
0.497561
0.50968
0.521649
0.533416
0.544923
0.556109
0.566906
0.261406
0.270257
0.27937
0.288746
0.298386
0.308291
0.318458
0.328887
0.339574
0.350516
0.361705
0.373136
0.384798
0.396683
0.408775
0.421061
0.433524
0.446143
0.458895
0.471755
0.484695
0.497681
0.510679
0.523648
0.536545
0.549322
0.561927
0.574302
0.586387
0.598114
0.609412
0.282806
0.292199
0.301865
0.311806
0.322023
0.332514
0.34328
0.354317
0.365622
0.37719
0.389015
0.401088
0.4134
0.425939
0.43869
0.451638
0.464763
0.478044
0.491457
0.504973
0.518562
0.532189
0.545816
0.559399
0.572893
0.586246
0.599402
0.6123
0.624875
0.637056
0.648766
0.30296
0.312853
0.32303
0.333493
0.34424
0.355273
0.366588
0.378184
0.390056
0.402198
0.414604
0.427264
0.440168
0.453301
0.466651
0.480197
0.493921
0.507799
0.521804
0.535906
0.550074
0.564268
0.578449
0.592571
0.606584
0.620434
0.634061
0.647401
0.660385
0.672937
0.684976
0.321842
0.332197
0.342844
0.353785
0.365021
0.376549
0.388368
0.400474
0.412864
0.425529
0.438464
0.451656
0.465096
0.478768
0.492657
0.506742
0.521003
0.535413
0.549946
0.564569
0.579247
0.59394
0.608605
0.623193
0.637653
0.651926
0.665949
0.679656
0.692971
0.705817
0.71811
0.339458
0.350235
0.361313
0.372693
0.384374
0.396354
0.408633
0.421204
0.434064
0.447204
0.460617
0.474291
0.488214
0.502371
0.516743
0.531311
0.54605
0.560934
0.575934
0.591015
0.60614
0.621267
0.63635
0.651338
0.666176
0.680804
0.695154
0.709157
0.722734
0.735804
0.748279
0.355832
0.366995
0.378466
0.390246
0.402332
0.414725
0.42742
0.440413
0.453698
0.467268
0.481112
0.49522
0.509577
0.524167
0.538971
0.553967
0.569131
0.584433
0.599843
0.615324
0.630837
0.646338
0.661778
0.677105
0.69226
0.707179
0.721793
0.736028
0.749804
0.763035
0.775628
0.371003
0.382518
0.394347
0.40649
0.418945
0.431711
0.444783
0.458157
0.471827
0.485783
0.500015
0.514511
0.529256
0.544232
0.559419
0.574795
0.590332
0.606001
0.621768
0.637597
0.653444
0.669264
0.685007
0.700615
0.71603
0.731183
0.746004
0.760415
0.774332
0.787666
0.800322
0.385022
0.396857
0.409011
0.421483
0.434272
0.447375
0.460788
0.474506
0.48852
0.502823
0.517402
0.532245
0.547335
0.562654
0.57818
0.593889
0.609754
0.625742
0.641819
0.657946
0.674078
0.690167
0.706161
0.722002
0.737625
0.752962
0.767938
0.782473
0.79648
0.809868
0.822537
0.397947
0.410073
0.422521
0.435291
0.448381
0.461788
0.475508
0.489534
0.503858
0.51847
0.533359
0.548509
0.563905
0.579527
0.595351
0.611353
0.627502
0.643767
0.660111
0.676491
0.692863
0.709177
0.725377
0.741403
0.757189
0.772664
0.78775
0.802364
0.816418
0.829814
0.842454
0.40984
0.422228
0.434942
0.447981
0.461343
0.475024
0.489018
0.50332
0.517921
0.532809
0.547973
0.563396
0.579062
0.59495
0.611035
0.627291
0.643688
0.660191
0.676761
0.693355
0.709928
0.726426
0.742791
0.758963
0.774871
0.790443
0.805599
0.820253
0.834313
0.847681
0.860253
0.420765
0.433391
0.446345
0.459626
0.473231
0.487157
0.501398
0.515947
0.530794
0.545928
0.561335
0.577
0.592903
0.609023
0.625336
0.641813
0.658421
0.675126
0.691888
0.708662
0.725398
0.742044
0.758539
0.77482
0.790815
0.806449
0.82164
0.836299
0.850332
0.863639
0.876113
0.430788
0.443627
0.456797
0.470295
0.48412
0.498266
0.512727
0.527495
0.542561
0.557912
0.573534
0.589411
0.605522
0.621846
0.638355
0.655021
0.671811
0.688687
0.705609
0.722529
0.739399
0.75616
0.772754
0.789112
0.805163
0.820828
0.836024
0.850658
0.864636
0.877853
0.890203
0.439971
0.453002
0.466366
0.48006
0.494081
0.508423
0.52308
0.538043
0.553303
0.568847
0.584658
0.600721
0.617014
0.633513
0.650192
0.66702
0.683963
0.700983
0.718036
0.735075
0.752049
0.768899
0.785562
0.801971
0.81805
0.83372
0.848894
0.86348
0.877377
0.890483
0.902685
0.448376
0.461581
0.475119
0.488988
0.503183
0.517701
0.532532
0.547669
0.563101
0.578813
0.594791
0.611016
0.627466
0.644117
0.660941
0.677907
0.694978
0.712116
0.729276
0.74641
0.763463
0.780377
0.797086
0.813521
0.829606
0.845258
0.860389
0.874903
0.888701
0.901675
0.913713
0.456064
0.469425
0.483119
0.497144
0.511496
0.526169
0.541155
0.556445
0.572028
0.587889
0.604012
0.620378
0.636964
0.653745
0.670693
0.687774
0.704952
0.722187
0.739432
0.756638
0.773749
0.790705
0.80744
0.823881
0.839951
0.855566
0.870635
0.885061
0.898742
0.91157
0.923429
0.463092
0.476591
0.490425
0.504589
0.519081
0.533892
0.549015
0.564441
0.580157
0.596148
0.612397
0.628885
0.645588
0.662481
0.679532
0.69671
0.713975
0.731287
0.748598
0.765857
0.783008
0.799988
0.81673
0.83316
0.849198
0.864759
0.879751
0.894075
0.907627
0.920295
0.931964
0.469511
0.483136
0.497094
0.511383
0.525998
0.540932
0.556177
0.571722
0.587554
0.603659
0.620018
0.636611
0.653414
0.6704
0.687539
0.704796
0.722131
0.739503
0.756864
0.77416
0.791334
0.808322
0.825056
0.841459
0.857452
0.872947
0.887849
0.902059
0.915471
0.927971
0.939442
0.475374
0.48911
0.50318
0.51758
0.532305
0.547347
0.562699
0.578349
0.594283
0.610486
0.62694
0.643624
0.660512
0.677577
0.694787
0.712108
0.729499
0.746917
0.764312
0.78163
0.798813
0.815797
0.832509
0.848874
0.86481
0.880227
0.89503
0.909117
0.92238
0.934706
0.945974
0.480726
0.494562
0.508731
0.52323
0.538052
0.553191
0.568637
0.584378
0.600401
0.61669
0.633226
0.649986
0.666945
0.684076
0.701345
0.718717
0.73615
0.753601
0.771018
0.788347
0.805528
0.822494
0.839175
0.855491
0.87136
0.886691
0.901386
0.915344
0.928453
0.940599
0.95166
0.485612
0.499536
0.513794
0.52838
0.543289
0.558513
0.574041
0.589863
0.605963
0.622326
0.638931
0.655756
0.672776
0.68996
0.707276
0.724688
0.742152
0.759624
0.777052
0.794381
0.81155
0.82849
0.845129
0.861389
0.877184
0.892421
0.907004
0.920827
0.933778
0.945742
0.956596
0.490071
0.504075
0.518412
0.533075
0.54806
0.563358
0.578959
0.594851
0.611018
0.627444
0.644109
0.660989
0.678058
0.695286
0.712639
0.730079
0.747565
0.765049
0.78248
0.7998
0.816947
0.833853
0.850445
0.866641
0.882355
0.897495
0.91196
0.925645
0.938437
0.950217
0.960863
0.494141
0.508216
0.522622
0.537355
0.552407
0.567771
0.583435
0.599387
0.615612
0.632093
0.648807
0.665733
0.682842
0.700105
0.717486
0.734947
0.752446
0.769934
0.787359
0.804662
0.821782
0.838647
0.855185
0.871312
0.886941
0.901979
0.916324
0.929869
0.942501
0.954099
0.964539
0.0436047
0.0460704
0.048635
0.0512998
0.0540659
0.0569339
0.0599046
0.0629778
0.0661534
0.0694307
0.0728084
0.0762848
0.0798574
0.0835234
0.0872789
0.0911193
0.0950394
0.0990327
0.103092
0.107209
0.111373
0.115575
0.119802
0.12404
0.128274
0.132488
0.136664
0.140781
0.144819
0.148753
0.152558
0.0652699
0.0685066
0.0718633
0.0753415
0.0789424
0.0826669
0.0865154
0.0904881
0.0945846
0.0988038
0.103144
0.107604
0.11218
0.116869
0.121665
0.126564
0.131559
0.136643
0.141806
0.147039
0.15233
0.157665
0.163031
0.168411
0.173788
0.17914
0.184447
0.189684
0.194825
0.199843
0.204706
0.0890228
0.0930397
0.0971976
0.101498
0.105943
0.110533
0.115268
0.120149
0.125175
0.130344
0.135656
0.141106
0.146693
0.152411
0.158255
0.164219
0.170295
0.176474
0.182745
0.189098
0.195517
0.201989
0.208495
0.215018
0.221535
0.228023
0.234458
0.24081
0.247049
0.253142
0.259053
0.114036
0.118827
0.123781
0.128898
0.134179
0.139627
0.145241
0.151021
0.156967
0.163076
0.169347
0.175777
0.182362
0.189096
0.195973
0.202986
0.210125
0.217381
0.224742
0.232193
0.239719
0.247303
0.254924
0.262562
0.270192
0.277786
0.285316
0.292749
0.30005
0.307181
0.314101
0.139635
0.145184
0.150915
0.156829
0.162929
0.169214
0.175685
0.182342
0.189184
0.196208
0.203414
0.210795
0.218349
0.226069
0.233948
0.241976
0.250145
0.258442
0.266853
0.275363
0.283955
0.292608
0.301299
0.310005
0.318698
0.327346
0.335918
0.344376
0.352682
0.36079
0.368657
0.165282
0.171564
0.178045
0.184729
0.191617
0.198709
0.206006
0.213506
0.22121
0.229114
0.237216
0.245511
0.253993
0.262657
0.271493
0.280492
0.289642
0.29893
0.308341
0.317857
0.327458
0.337122
0.346823
0.356535
0.366226
0.375863
0.385407
0.39482
0.404055
0.413066
0.421801
0.190559
0.197541
0.20474
0.212159
0.219798
0.22766
0.235743
0.244047
0.25257
0.26131
0.270263
0.279423
0.288786
0.298342
0.308083
0.317997
0.328072
0.338293
0.348642
0.3591
0.369645
0.380253
0.390894
0.40154
0.412155
0.422702
0.433141
0.443426
0.453508
0.463336
0.472851
0.215148
0.222793
0.230672
0.238786
0.247137
0.255725
0.264551
0.273612
0.282908
0.292434
0.302187
0.312161
0.322348
0.332741
0.343327
0.354097
0.365034
0.376122
0.387343
0.398674
0.410092
0.421569
0.433075
0.444576
0.456035
0.467411
0.478658
0.489729
0.500569
0.511122
0.521325
0.238818
0.247087
0.255604
0.264371
0.273389
0.282659
0.29218
0.30195
0.311967
0.322228
0.332727
0.343458
0.354412
0.365581
0.376952
0.388512
0.400246
0.412134
0.424156
0.436288
0.448504
0.460775
0.473066
0.485342
0.497561
0.50968
0.521649
0.533416
0.544923
0.556109
0.566906
0.261406
0.270257
0.27937
0.288746
0.298386
0.308291
0.318458
0.328887
0.339574
0.350516
0.361705
0.373136
0.384798
0.396683
0.408775
0.421061
0.433524
0.446143
0.458895
0.471755
0.484695
0.497681
0.510679
0.523648
0.536545
0.549322
0.561927
0.574302
0.586387
0.598114
0.609412
0.282806
0.292199
0.301865
0.311806
0.322023
0.332514
0.34328
0.354317
0.365622
0.37719
0.389015
0.401088
0.4134
0.425939
0.43869
0.451638
0.464763
0.478044
0.491457
0.504973
0.518562
0.532189
0.545816
0.559399
0.572893
0.586246
0.599402
0.6123
0.624875
0.637056
0.648766
0.30296
0.312853
0.32303
0.333493
0.34424
0.355273
0.366588
0.378184
0.390056
0.402198
0.414604
0.427264
0.440168
0.453301
0.466651
0.480197
0.493921
0.507799
0.521804
0.535906
0.550074
0.564268
0.578449
0.592571
0.606584
0.620434
0.634061
0.647401
0.660385
0.672937
0.684976
0.321842
0.332197
0.342844
0.353785
0.365021
0.376549
0.388368
0.400474
0.412864
0.425529
0.438464
0.451656
0.465096
0.478768
0.492657
0.506742
0.521003
0.535413
0.549946
0.564569
0.579247
0.59394
0.608605
0.623193
0.637653
0.651926
0.665949
0.679656
0.692971
0.705817
0.71811
0.339458
0.350235
0.361313
0.372693
0.384374
0.396354
0.408633
0.421204
0.434064
0.447204
0.460617
0.474291
0.488214
0.502371
0.516743
0.531311
0.54605
0.560934
0.575934
0.591015
0.60614
0.621267
0.63635
0.651338
0.666176
0.680804
0.695154
0.709157
0.722734
0.735804
0.748279
0.355832
0.366995
0.378466
0.390246
0.402332
0.414725
0.42742
0.440413
0.453698
0.467268
0.481112
0.49522
0.509577
0.524167
0.538971
0.553967
0.569131
0.584433
0.599843
0.615324
0.630837
0.646338
0.661778
0.677105
0.69226
0.707179
0.721793
0.736028
0.749804
0.763035
0.775628
0.371003
0.382518
0.394347
0.40649
0.418945
0.431711
0.444783
0.458157
0.471827
0.485783
0.500015
0.514511
0.529256
0.544232
0.559419
0.574795
0.590332
0.606001
0.621768
0.637597
0.653444
0.669264
0.685007
0.700615
0.71603
0.731183
0.746004
0.760415
0.774332
0.787666
0.800322
0.385022
0.396857
0.409011
0.421483
0.434272
0.447375
0.460788
0.474506
0.48852
0.502823
0.517402
0.532245
0.547335
0.562654
0.57818
0.593889
0.609754
0.625742
0.641819
0.657946
0.674078
0.690167
0.706161
0.722002
0.737625
0.752962
0.767938
0.782473
0.79648
0.809868
0.822537
0.397947
0.410073
0.422521
0.435291
0.448381
0.461788
0.475508
0.489534
0.503858
0.51847
0.533359
0.548509
0.563905
0.579527
0.595351
0.611353
0.627502
0.643767
0.660111
0.676491
0.692863
0.709177
0.725377
0.741403
0.757189
0.772664
0.78775
0.802364
0.816418
0.829814
0.842454
0.40984
0.422228
0.434942
0.447981
0.461343
0.475024
0.489018
0.50332
0.517921
0.532809
0.547973
0.563396
0.579062
0.59495
0.611035
0.627291
0.643688
0.660191
0.676761
0.693355
0.709928
0.726426
0.742791
0.758963
0.774871
0.790443
0.805599
0.820253
0.834313
0.847681
0.860253
0.420765
0.433391
0.446345
0.459626
0.473231
0.487157
0.501398
0.515947
0.530794
0.545928
0.561335
0.577
0.592903
0.609023
0.625336
0.641813
0.658421
0.675126
0.691888
0.708662
0.725398
0.742044
0.758539
0.77482
0.790815
0.806449
0.82164
0.836299
0.850332
0.863639
0.876113
0.430788
0.443627
0.456797
0.470295
0.48412
0.498266
0.512727
0.527495
0.542561
0.557912
0.573534
0.589411
0.605522
0.621846
0.638355
0.655021
0.671811
0.688687
0.705609
0.722529
0.739399
0.75616
0.772754
0.789112
0.805163
0.820828
0.836024
0.850658
0.864636
0.877853
0.890203
0.439971
0.453002
0.466366
0.48006
0.494081
0.508423
0.52308
0.538043
0.553303
0.568847
0.584658
0.600721
0.617014
0.633513
0.650192
0.66702
0.683963
0.700983
0.718036
0.735075
0.752049
0.768899
0.785562
0.801971
0.81805
0.83372
0.848894
0.86348
0.877377
0.890483
0.902685
0.448376
0.461581
0.475119
0.488988
0.503183
0.517701
0.532532
0.547669
0.563101
0.578813
0.594791
0.611016
0.627466
0.644117
0.660941
0.677907
0.694978
0.712116
0.729276
0.74641
0.763463
0.780377
0.797086
0.813521
0.829606
0.845258
0.860389
0.874903
0.888701
0.901675
0.913713
0.456064
0.469425
0.483119
0.497144
0.511496
0.526169
0.541155
0.556445
0.572028
0.587889
0.604012
0.620378
0.636964
0.653745
0.670693
0.687774
0.704952
0.722187
0.739432
0.756638
0.773749
0.790705
0.80744
0.823881
0.839951
0.855566
0.870635
0.885061
0.898742
0.91157
0.923429
0.463092
0.476591
0.490425
0.504589
0.519081
0.533892
0.549015
0.564441
0.580157
0.596148
0.612397
0.628885
0.645588
0.662481
0.679532
0.69671
0.713975
0.731287
0.748598
0.765857
0.783008
0.799988
0.81673
0.83316
0.849198
0.864759
0.879751
0.894075
0.907627
0.920295
0.931964
0.469511
0.483136
0.497094
0.511383
0.525998
0.540932
0.556177
0.571722
0.587554
0.603659
0.620018
0.636611
0.653414
0.6704
0.687539
0.704796
0.722131
0.739503
0.756864
0.77416
0.791334
0.808322
0.825056
0.841459
0.857452
0.872947
0.887849
0.902059
0.915471
0.927971
0.939442
0.475374
0.48911
0.50318
0.51758
0.532305
0.547347
0.562699
0.578349
0.594283
0.610486
0.62694
0.643624
0.660512
0.677577
0.694787
0.712108
0.729499
0.746917
0.764312
0.78163
0.798813
0.815797
0.832509
0.848874
0.86481
0.880227
0.89503
0.909117
0.92238
0.934706
0.945974
0.480726
0.494562
0.508731
0.52323
0.538052
0.553191
0.568637
0.584378
0.600401
0.61669
0.633226
0.649986
0.666945
0.684076
0.701345
0.718717
0.73615
0.753601
0.771018
0.788347
0.805528
0.822494
0.839175
0.855491
0.87136
0.886691
0.901386
0.915344
0.928453
0.940599
0.95166
0.485612
0.499536
0.513794
0.52838
0.543289
0.558513
0.574041
0.589863
0.605963
0.622326
0.638931
0.655756
0.672776
0.68996
0.707276
0.724688
0.742152
0.759624
0.777052
0.794381
0.81155
0.82849
0.845129
0.861389
0.877184
0.892421
0.907004
0.920827
0.933778
0.945742
0.956596
0.490071
0.504075
0.518412
0.533075
0.54806
0.563358
0.578959
0.594851
0.611018
0.627444
0.644109
0.660989
0.678058
0.695286
0.712639
0.730079
0.747565
0.765049
0.78248
0.7998
0.816947
0.833853
0.850445
0.866641
0.882355
0.897495
0.91196
0.925645
0.938437
0.950217
0.960863
0.494141
0.508216
0.522622
0.537355
0.552407
0.567771
0.583435
0.599387
0.615612
0.632093
0.648807
0.665733
0.682842
0.700105
0.717486
0.734947
0.752446
0.769934
0.787359
0.804662
0.821782
0.838647
0.855185
0.871312
0.886941
0.901979
0.916324
0.929869
0.942501
0.954099
0.964539
0.15437
0.15606
0.157634
0.159099
0.160463
0.16173
0.162909
0.164003
0.165019
0.165961
0.166835
0.167646
0.168396
0.169091
0.169735
0.17033
0.17088
0.171389
0.171858
0.172292
0.206784
0.208718
0.210516
0.212188
0.21374
0.215181
0.216518
0.217758
0.218907
0.219971
0.220956
0.221868
0.222711
0.223489
0.224209
0.224873
0.225486
0.226052
0.226573
0.227053
0.261362
0.263507
0.2655
0.267348
0.269063
0.270652
0.272124
0.273487
0.274747
0.275913
0.276991
0.277986
0.278905
0.279752
0.280533
0.281253
0.281916
0.282526
0.283087
0.283602
0.316608
0.318933
0.32109
0.323089
0.32494
0.326653
0.328238
0.329702
0.331056
0.332305
0.333457
0.33452
0.335499
0.336401
0.337231
0.337993
0.338694
0.339338
0.339928
0.340469
0.37133
0.373808
0.376102
0.378226
0.38019
0.382005
0.383681
0.385229
0.386656
0.387972
0.389184
0.3903
0.391326
0.392269
0.393135
0.39393
0.394658
0.395326
0.395936
0.396495
0.424613
0.427216
0.429623
0.431849
0.433904
0.435801
0.437551
0.439164
0.44065
0.442017
0.443275
0.44443
0.445491
0.446464
0.447356
0.448173
0.44892
0.449602
0.450225
0.450793
0.475776
0.47848
0.480979
0.483285
0.485413
0.487375
0.489182
0.490845
0.492374
0.493779
0.49507
0.496254
0.497338
0.498332
0.49924
0.50007
0.500828
0.501518
0.502147
0.502718
0.52434
0.527124
0.529694
0.532064
0.534247
0.536257
0.538106
0.539806
0.541366
0.542798
0.544111
0.545313
0.546413
0.547418
0.548335
0.549171
0.549932
0.550624
0.551253
0.551822
0.569991
0.572837
0.57546
0.577877
0.580101
0.582146
0.584024
0.585749
0.58733
0.588778
0.590104
0.591316
0.592422
0.593432
0.594351
0.595187
0.595946
0.596635
0.597258
0.597821
0.612549
0.61544
0.618103
0.620552
0.622804
0.624872
0.626769
0.628508
0.630101
0.631557
0.632888
0.634102
0.635209
0.636216
0.637132
0.637963
0.638715
0.639396
0.64001
0.640563
0.651941
0.654863
0.657552
0.660022
0.662291
0.664371
0.666278
0.668023
0.669619
0.671076
0.672405
0.673616
0.674718
0.675718
0.676626
0.677447
0.678189
0.678858
0.67946
0.68
0.688175
0.691116
0.693819
0.696301
0.698576
0.700661
0.702569
0.704314
0.705906
0.707358
0.708681
0.709883
0.710975
0.711964
0.712859
0.713668
0.714396
0.715051
0.715638
0.716162
0.72132
0.724271
0.726979
0.729463
0.731738
0.73382
0.735723
0.73746
0.739044
0.740486
0.741796
0.742986
0.744064
0.74504
0.74592
0.746713
0.747425
0.748063
0.748633
0.749141
0.751493
0.754443
0.757149
0.759627
0.761895
0.763968
0.765861
0.767586
0.769156
0.770584
0.77188
0.773054
0.774116
0.775074
0.775937
0.776712
0.777406
0.778026
0.778579
0.779068
0.778837
0.78178
0.784477
0.786944
0.7892
0.791259
0.793136
0.794845
0.796399
0.79781
0.799087
0.800243
0.801286
0.802225
0.803069
0.803825
0.8045
0.805101
0.805634
0.806104
0.80352
0.806449
0.809131
0.811583
0.813821
0.815863
0.817721
0.819411
0.820946
0.822336
0.823593
0.824729
0.825751
0.82667
0.827493
0.828229
0.828884
0.829465
0.829978
0.830429
0.825717
0.828629
0.831292
0.833723
0.835941
0.837961
0.839799
0.841467
0.842979
0.844348
0.845583
0.846697
0.847698
0.848595
0.849397
0.850111
0.850745
0.851306
0.851799
0.85223
0.845613
0.848502
0.851142
0.85355
0.855745
0.857742
0.859555
0.8612
0.862689
0.864034
0.865246
0.866337
0.867315
0.86819
0.86897
0.869663
0.870276
0.870816
0.871288
0.8717
0.863387
0.866251
0.868865
0.871248
0.873417
0.875388
0.877176
0.878796
0.88026
0.881581
0.882769
0.883836
0.884791
0.885643
0.886401
0.887072
0.887664
0.888183
0.888636
0.889028
0.879219
0.882055
0.884641
0.886996
0.889138
0.891082
0.892844
0.894437
0.895876
0.897171
0.898335
0.899378
0.90031
0.901139
0.901874
0.902524
0.903095
0.903593
0.904026
0.904399
0.893278
0.896084
0.898641
0.900968
0.903081
0.904997
0.906731
0.908298
0.90971
0.91098
0.912119
0.913138
0.914046
0.914852
0.915566
0.916194
0.916744
0.917222
0.917636
0.917989
0.905729
0.908504
0.91103
0.913326
0.91541
0.917297
0.919004
0.920543
0.921929
0.923173
0.924288
0.925282
0.926167
0.926951
0.927642
0.928249
0.928778
0.929237
0.929631
0.929966
0.916724
0.919467
0.921961
0.924227
0.92628
0.928139
0.929817
0.931329
0.932688
0.933907
0.934996
0.935967
0.936828
0.93759
0.93826
0.938846
0.939355
0.939795
0.94017
0.940487
0.926406
0.929116
0.931578
0.933813
0.935836
0.937665
0.939315
0.9408
0.942133
0.943326
0.94439
0.945337
0.946176
0.946915
0.947564
0.94813
0.94862
0.94904
0.949398
0.949698
0.934907
0.937584
0.940015
0.942218
0.944211
0.946011
0.947632
0.94909
0.950396
0.951564
0.952604
0.953528
0.954344
0.955062
0.95569
0.956236
0.956707
0.95711
0.95745
0.957733
0.942351
0.944994
0.947392
0.949564
0.951527
0.953298
0.954891
0.956322
0.957603
0.958745
0.959762
0.960662
0.961457
0.962154
0.962762
0.963288
0.963741
0.964126
0.964449
0.964716
0.948848
0.951458
0.953824
0.955965
0.957898
0.95964
0.961206
0.96261
0.963865
0.964983
0.965976
0.966854
0.967627
0.968303
0.968892
0.9694
0.969834
0.970202
0.970509
0.970761
0.954501
0.957078
0.959413
0.961523
0.963426
0.96514
0.966678
0.968056
0.969286
0.97038
0.97135
0.972206
0.972957
0.973614
0.974183
0.974673
0.97509
0.975442
0.975733
0.97597
0.959403
0.961948
0.964251
0.966331
0.968205
0.969891
0.971402
0.972754
0.973959
0.97503
0.975977
0.976811
0.977543
0.978179
0.97873
0.979202
0.979603
0.979939
0.980215
0.980438
0.963637
0.96615
0.968423
0.970473
0.972319
0.973977
0.975462
0.976789
0.97797
0.979017
0.979942
0.980756
0.981467
0.982085
0.982617
0.983072
0.983457
0.983777
0.984039
0.984248
0.967281
0.969763
0.972005
0.974027
0.975845
0.977476
0.978935
0.980237
0.981394
0.982419
0.983322
0.984115
0.984807
0.985406
0.985921
0.986359
0.986728
0.987033
0.987281
0.987477
0.15437
0.15606
0.157634
0.159099
0.160463
0.16173
0.162909
0.164003
0.165019
0.165961
0.166835
0.167646
0.168396
0.169091
0.169735
0.17033
0.17088
0.171389
0.171858
0.172292
0.206784
0.208718
0.210516
0.212188
0.21374
0.215181
0.216518
0.217758
0.218907
0.219971
0.220956
0.221868
0.222711
0.223489
0.224209
0.224873
0.225486
0.226052
0.226573
0.227053
0.261362
0.263507
0.2655
0.267348
0.269063
0.270652
0.272124
0.273487
0.274747
0.275913
0.276991
0.277986
0.278905
0.279752
0.280533
0.281253
0.281916
0.282526
0.283087
0.283602
0.316608
0.318933
0.32109
0.323089
0.32494
0.326653
0.328238
0.329702
0.331056
0.332305
0.333457
0.33452
0.335499
0.336401
0.337231
0.337993
0.338694
0.339338
0.339928
0.340469
0.37133
0.373808
0.376102
0.378226
0.38019
0.382005
0.383681
0.385229
0.386656
0.387972
0.389184
0.3903
0.391326
0.392269
0.393135
0.39393
0.394658
0.395326
0.395936
0.396495
0.424613
0.427216
0.429623
0.431849
0.433904
0.435801
0.437551
0.439164
0.44065
0.442017
0.443275
0.44443
0.445491
0.446464
0.447356
0.448173
0.44892
0.449602
0.450225
0.450793
0.475776
0.47848
0.480979
0.483285
0.485413
0.487375
0.489182
0.490845
0.492374
0.493779
0.49507
0.496254
0.497338
0.498332
0.49924
0.50007
0.500828
0.501518
0.502147
0.502718
0.52434
0.527124
0.529694
0.532064
0.534247
0.536257
0.538106
0.539806
0.541366
0.542798
0.544111
0.545313
0.546413
0.547418
0.548335
0.549171
0.549932
0.550624
0.551253
0.551822
0.569991
0.572837
0.57546
0.577877
0.580101
0.582146
0.584024
0.585749
0.58733
0.588778
0.590104
0.591316
0.592422
0.593432
0.594351
0.595187
0.595946
0.596635
0.597258
0.597821
0.612549
0.61544
0.618103
0.620552
0.622804
0.624872
0.626769
0.628508
0.630101
0.631557
0.632888
0.634102
0.635209
0.636216
0.637132
0.637963
0.638715
0.639396
0.64001
0.640563
0.651941
0.654863
0.657552
0.660022
0.662291
0.664371
0.666278
0.668023
0.669619
0.671076
0.672405
0.673616
0.674718
0.675718
0.676626
0.677447
0.678189
0.678858
0.67946
0.68
0.688175
0.691116
0.693819
0.696301
0.698576
0.700661
0.702569
0.704314
0.705906
0.707358
0.708681
0.709883
0.710975
0.711964
0.712859
0.713668
0.714396
0.715051
0.715638
0.716162
0.72132
0.724271
0.726979
0.729463
0.731738
0.73382
0.735723
0.73746
0.739044
0.740486
0.741796
0.742986
0.744064
0.74504
0.74592
0.746713
0.747425
0.748063
0.748633
0.749141
0.751493
0.754443
0.757149
0.759627
0.761895
0.763968
0.765861
0.767586
0.769156
0.770584
0.77188
0.773054
0.774116
0.775074
0.775937
0.776712
0.777406
0.778026
0.778579
0.779068
0.778837
0.78178
0.784477
0.786944
0.7892
0.791259
0.793136
0.794845
0.796399
0.79781
0.799087
0.800243
0.801286
0.802225
0.803069
0.803825
0.8045
0.805101
0.805634
0.806104
0.80352
0.806449
0.809131
0.811583
0.813821
0.815863
0.817721
0.819411
0.820946
0.822336
0.823593
0.824729
0.825751
0.82667
0.827493
0.828229
0.828884
0.829465
0.829978
0.830429
0.825717
0.828629
0.831292
0.833723
0.835941
0.837961
0.839799
0.841467
0.842979
0.844348
0.845583
0.846697
0.847698
0.848595
0.849397
0.850111
0.850745
0.851306
0.851799
0.85223
0.845613
0.848502
0.851142
0.85355
0.855745
0.857742
0.859555
0.8612
0.862689
0.864034
0.865246
0.866337
0.867315
0.86819
0.86897
0.869663
0.870276
0.870816
0.871288
0.8717
0.863387
0.866251
0.868865
0.871248
0.873417
0.875388
0.877176
0.878796
0.88026
0.881581
0.882769
0.883836
0.884791
0.885643
0.886401
0.887072
0.887664
0.888183
0.888636
0.889028
0.879219
0.882055
0.884641
0.886996
0.889138
0.891082
0.892844
0.894437
0.895876
0.897171
0.898335
0.899378
0.90031
0.901139
0.901874
0.902524
0.903095
0.903593
0.904026
0.904399
0.893278
0.896084
0.898641
0.900968
0.903081
0.904997
0.906731
0.908298
0.90971
0.91098
0.912119
0.913138
0.914046
0.914852
0.915566
0.916194
0.916744
0.917222
0.917636
0.917989
0.905729
0.908504
0.91103
0.913326
0.91541
0.917297
0.919004
0.920543
0.921929
0.923173
0.924288
0.925282
0.926167
0.926951
0.927642
0.928249
0.928778
0.929237
0.929631
0.929966
0.916724
0.919467
0.921961
0.924227
0.92628
0.928139
0.929817
0.931329
0.932688
0.933907
0.934996
0.935967
0.936828
0.93759
0.93826
0.938846
0.939355
0.939795
0.94017
0.940487
0.926406
0.929116
0.931578
0.933813
0.935836
0.937665
0.939315
0.9408
0.942133
0.943326
0.94439
0.945337
0.946176
0.946915
0.947564
0.94813
0.94862
0.94904
0.949398
0.949698
0.934907
0.937584
0.940015
0.942218
0.944211
0.946011
0.947632
0.94909
0.950396
0.951564
0.952604
0.953528
0.954344
0.955062
0.95569
0.956236
0.956707
0.95711
0.95745
0.957733
0.942351
0.944994
0.947392
0.949564
0.951527
0.953298
0.954891
0.956322
0.957603
0.958745
0.959762
0.960662
0.961457
0.962154
0.962762
0.963288
0.963741
0.964126
0.964449
0.964716
0.948848
0.951458
0.953824
0.955965
0.957898
0.95964
0.961206
0.96261
0.963865
0.964983
0.965976
0.966854
0.967627
0.968303
0.968892
0.9694
0.969834
0.970202
0.970509
0.970761
0.954501
0.957078
0.959413
0.961523
0.963426
0.96514
0.966678
0.968056
0.969286
0.97038
0.97135
0.972206
0.972957
0.973614
0.974183
0.974673
0.97509
0.975442
0.975733
0.97597
0.959403
0.961948
0.964251
0.966331
0.968205
0.969891
0.971402
0.972754
0.973959
0.97503
0.975977
0.976811
0.977543
0.978179
0.97873
0.979202
0.979603
0.979939
0.980215
0.980438
0.963637
0.96615
0.968423
0.970473
0.972319
0.973977
0.975462
0.976789
0.97797
0.979017
0.979942
0.980756
0.981467
0.982085
0.982617
0.983072
0.983457
0.983777
0.984039
0.984248
0.967281
0.969763
0.972005
0.974027
0.975845
0.977476
0.978935
0.980237
0.981394
0.982419
0.983322
0.984115
0.984807
0.985406
0.985921
0.986359
0.986728
0.987033
0.987281
0.987477
0.172886
0.17344
0.173953
0.174427
0.17486
0.175252
0.175603
0.175913
0.176183
0.176411
0.176597
0.176743
0.176847
0.176909
0.17693
0.176909
0.176847
0.176743
0.176597
0.176411
0.176183
0.175913
0.175603
0.175252
0.17486
0.174427
0.173953
0.17344
0.172886
0.172292
0.227677
0.22826
0.2288
0.229297
0.229752
0.230164
0.230533
0.230859
0.231142
0.231381
0.231577
0.23173
0.231839
0.231904
0.231926
0.231904
0.231839
0.23173
0.231577
0.231381
0.231142
0.230859
0.230533
0.230164
0.229752
0.229297
0.2288
0.22826
0.227677
0.227053
0.28424
0.284834
0.285385
0.285893
0.286357
0.286777
0.287153
0.287485
0.287773
0.288017
0.288217
0.288372
0.288483
0.28855
0.288572
0.28855
0.288483
0.288372
0.288217
0.288017
0.287773
0.287485
0.287153
0.286777
0.286357
0.285893
0.285385
0.284834
0.28424
0.283602
0.341106
0.341698
0.342248
0.342754
0.343217
0.343635
0.34401
0.344341
0.344628
0.344871
0.34507
0.345225
0.345336
0.345402
0.345424
0.345402
0.345336
0.345225
0.34507
0.344871
0.344628
0.344341
0.34401
0.343635
0.343217
0.342754
0.342248
0.341698
0.341106
0.340469
0.397118
0.397699
0.398237
0.398733
0.399186
0.399596
0.399963
0.400287
0.400568